 ANIMSTEPS   7
 CRYSTAL 
 PRIMVEC 
  6.4960384586  0.0000000000  0.0000000000
 -3.2480192293  5.6257343291  0.0000000000
  0.0000000000  0.0000000000 12.8755267490
 PRIMCOORD   1
   23  1
 W   -0.0000000003    1.8741287891    3.2235173559    0.0000000000    0.0001367209    0.0003972953
 W    3.2480192296    1.8752447762    3.2166226709    0.0000000000    0.0000000000    0.0001174006
 W   -1.6249760884    4.6886699348    3.2235173559    0.0001184038   -0.0000683604    0.0003972953
 W    1.6249760878    4.6886699348    3.2235173559   -0.0001184038   -0.0000683604    0.0003972953
 W    1.7096461065    0.9870646395    9.6554085129    0.0017876079    0.0010320759   -0.0064500616
 W    4.7863923527    0.9870646395    9.6554085129   -0.0017876079    0.0010320759   -0.0064500616
 W    0.0000000006    3.7504895523    9.6457778751    0.0000000000   -0.0000000000    0.0000713638
 W    3.2480192296    3.6516050496    9.6554085129    0.0000000000   -0.0020641518   -0.0064500616
Se   -0.0000000003    1.8777394192    7.9854870339    0.0000000000   -0.0010653639   -0.0127633534
Se   -1.6218491911    4.6868646198    7.9854870339   -0.0009226322    0.0005326820   -0.0127633534
Se    1.6218491904    4.6868646198    7.9854870339    0.0009226322    0.0005326820   -0.0127633534
Se    1.6215873679    0.9362239034    1.5433714378   -0.0001055087   -0.0000609155   -0.0129410304
Se    4.8744510906    0.9362239034    1.5433714378    0.0001055087   -0.0000609155   -0.0129410304
Se    0.0000000006    3.7504895523    1.5445645703    0.0000000000    0.0000000000   -0.0130844934
Se    3.2480192293    3.7532865223    1.5433714378    0.0000000000    0.0001218309   -0.0129410304
Se    0.0000000000    1.8377457942   11.2923601791   -0.0000000000   -0.0000307887    0.0135269552
Se    3.2480192296    1.8752447762   11.4065096126    0.0000000000   -0.0000000000    0.0127120754
Se   -1.6564846858    4.7068614320   11.2923601791   -0.0000266638    0.0000153943    0.0135269552
Se    1.6564846858    4.7068614320   11.2923601791    0.0000266638    0.0000153943    0.0135269552
Se    1.6289564233    0.9404784291    4.9013628718    0.0001602818    0.0000925388    0.0136650425
Se    4.8670820359    0.9404784291    4.9013628718   -0.0001602818    0.0000925388    0.0136650425
Se    0.0000000006    3.7504895523    4.8991189199    0.0000000000   -0.0000000000    0.0138791110
Se    3.2480192296    3.7447774703    4.9013628718    0.0000000000   -0.0001850775    0.0136650425
 PRIMCOORD   2
   23  1
 W   -0.0000000003    1.8691150030    3.2066076589    0.0000000000   -0.0002340160   -0.0007644739
 W    3.2480192296    1.8752447762    3.2067620744    0.0000000000    0.0000000000   -0.0009730033
 W   -1.6293181546    4.6911768279    3.2066076589   -0.0002026638    0.0001170080   -0.0007644739
 W    1.6293181540    4.6911768279    3.2066076589    0.0002026638    0.0001170080   -0.0007644739
 W    1.4617097662    0.8439185268    9.5353972722    0.0348885138    0.0201428928   -0.0116768792
 W    5.0343286927    0.8439185268    9.5353972722   -0.0348885138    0.0201428928   -0.0116768792
 W    0.0000000006    3.7504895523    9.5899460033    0.0000000000    0.0000000000   -0.0113157339
 W    3.2480192295    3.9378972752    9.5353972722    0.0000000000   -0.0402857857   -0.0116768792
Se   -0.0000000003    1.9276166379    7.8072385570    0.0000000000   -0.0071051174    0.0038239229
Se   -1.5786542526    4.6619260104    7.8072385570   -0.0061532122    0.0035525587    0.0038239229
Se    1.5786542520    4.6619260104    7.8072385570    0.0061532122    0.0035525587    0.0038239229
Se    1.6284366601    0.9401783439    1.5048569201   -0.0001289807   -0.0000744671   -0.0012778026
Se    4.8676017988    0.9401783439    1.5048569201    0.0001289807   -0.0000744671   -0.0012778026
Se    0.0000000006    3.7504895523    1.5178798389    0.0000000000    0.0000000000   -0.0012285249
Se    3.2480192294    3.7453776411    1.5048569201    0.0000000000    0.0001489341   -0.0012778026
Se    0.0000000000    1.8942912799   11.3585280209   -0.0000000000   -0.0091248044   -0.0194296535
Se    3.2480192296    1.8752447762   10.8308871170    0.0000000000    0.0000000000    0.1043231015
Se   -1.6075148587    4.6785886891   11.3585280209   -0.0079023124    0.0045624022   -0.0194296535
Se    1.6075148587    4.6785886891   11.3585280209    0.0079023124    0.0045624022   -0.0194296535
Se    1.6283320205    0.9401179300    4.9077821107    0.0001355505    0.0000782601   -0.0007174435
Se    4.8677064387    0.9401179300    4.9077821107   -0.0001355505    0.0000782601   -0.0007174435
Se    0.0000000006    3.7504895523    4.8906116857    0.0000000000    0.0000000000   -0.0006788502
Se    3.2480192296    3.7454984685    4.9077821107    0.0000000000   -0.0001565202   -0.0007174435
 PRIMCOORD   3
   23  1
 W   -0.0000000003    1.8693242038    3.2072940702    0.0000000000   -0.0002565211   -0.0007222632
 W    3.2480192296    1.8752447762    3.2072637920    0.0000000000    0.0000000000   -0.0008494016
 W   -1.6291369814    4.6910722275    3.2072940702   -0.0002221538    0.0001282605   -0.0007222632
 W    1.6291369807    4.6910722275    3.2072940702    0.0002221538    0.0001282605   -0.0007222632
 W    1.2800799764    0.7390545187    9.5897874551    0.0045148102    0.0026066269   -0.0105093384
 W    5.2159584825    0.7390545187    9.5897874551   -0.0045148102    0.0026066269   -0.0105093384
 W    0.0000000006    3.7504895523    9.6383443119    0.0000000000   -0.0000000000   -0.0040059223
 W    3.2480192294    4.1476252913    9.5897874551    0.0000000000   -0.0052132537   -0.0105093384
Se   -0.0000000003    1.9621668812    7.7833833088    0.0000000000    0.0003786375   -0.0047504234
Se   -1.5487328642    4.6446508887    7.7833833088    0.0003279097   -0.0001893187   -0.0047504234
Se    1.5487328635    4.6446508887    7.7833833088   -0.0003279097   -0.0001893187   -0.0047504234
Se    1.6286653945    0.9403104038    1.5067940032    0.0000665858    0.0000384433   -0.0009641634
Se    4.8673730644    0.9403104038    1.5067940032   -0.0000665858    0.0000384433   -0.0009641634
Se    0.0000000006    3.7504895523    1.5226639631    0.0000000000    0.0000000000   -0.0004429436
Se    3.2480192294    3.7451135213    1.5067940032    0.0000000000   -0.0000768866   -0.0009641634
Se   -0.0000000000    1.9426310270   11.4569154205    0.0000000000   -0.0015313661   -0.0067720292
Se    3.2480192296    1.8752447762   10.2615347340    0.0000000000    0.0000000000    0.0791392164
Se   -1.5656514097    4.6544188156   11.4569154205   -0.0013262019    0.0007656830   -0.0067720292
Se    1.5656514097    4.6544188156   11.4569154205    0.0013262019    0.0007656830   -0.0067720292
Se    1.6283155600    0.9401084265    4.9089097313    0.0001923039    0.0001110267   -0.0004905989
Se    4.8677228992    0.9401084265    4.9089097313   -0.0001923039    0.0001110267   -0.0004905989
Se    0.0000000006    3.7504895523    4.8910566965    0.0000000000   -0.0000000000   -0.0012144995
Se    3.2480192296    3.7455174755    4.9089097313    0.0000000000   -0.0002220534   -0.0004905989
 PRIMCOORD   4
   23  1
 W   -0.0000000003    1.8705418683    3.2119981454    0.0000000000    0.0000036042    0.0001864853
 W    3.2480192296    1.8752447762    3.2123125059    0.0000000000    0.0000000000    0.0001607792
 W   -1.6280824529    4.6904633952    3.2119981454    0.0000031213   -0.0000018021    0.0001864853
 W    1.6280824523    4.6904633952    3.2119981454   -0.0000031213   -0.0000018021    0.0001864853
 W    1.2478742686    0.7204605447    9.6619979512   -0.0008836815   -0.0005101938   -0.0001820408
 W    5.2481641902    0.7204605447    9.6619979512    0.0008836815   -0.0005101938   -0.0001820408
 W    0.0000000006    3.7504895523    9.6623123592    0.0000000000   -0.0000000000   -0.0001969729
 W    3.2480192294    4.1848132393    9.6619979512   -0.0000000000    0.0010203875   -0.0001820408
Se   -0.0000000003    1.9547942999    7.8178787126   -0.0000000000   -0.0000450649   -0.0002166272
Se   -1.5551177068    4.6483371794    7.8178787126   -0.0000390274    0.0000225325   -0.0002166272
Se    1.5551177062    4.6483371794    7.8178787126    0.0000390274    0.0000225325   -0.0002166272
Se    1.6279226313    0.9398815692    1.5115032818    0.0000096130    0.0000055500    0.0000905591
Se    4.8681158276    0.9398815692    1.5115032818   -0.0000096130    0.0000055500    0.0000905591
Se    0.0000000006    3.7504895523    1.5254070887    0.0000000000    0.0000000000    0.0004240540
Se    3.2480192294    3.7459711904    1.5115032818   -0.0000000000   -0.0000111001    0.0000905591
Se   -0.0000000000    1.9546054041   11.5059663327   -0.0000000000   -0.0000232237   -0.0002547260
Se    3.2480192296    1.8752447762    9.6613599745    0.0000000000    0.0000000000    0.0000006580
Se   -1.5552812950    4.6484316270   11.5059663327   -0.0000201123    0.0000116119   -0.0002547260
Se    1.5552812950    4.6484316270   11.5059663327    0.0000201123    0.0000116119   -0.0002547260
Se    1.6275527370    0.9396680105    4.9126596440    0.0000330005    0.0000190528    0.0002686871
Se    4.8684857222    0.9396680105    4.9126596440   -0.0000330005    0.0000190528    0.0002686871
Se    0.0000000006    3.7504895523    4.8991360108    0.0000000000    0.0000000000   -0.0000655305
Se    3.2480192296    3.7463983076    4.9126596440    0.0000000000   -0.0000381057    0.0002686871
 PRIMCOORD   5
   23  1
 W   -0.0000000003    1.8693000584    3.2165465073   -0.0000000000   -0.0002578180    0.0010956804
 W    3.2480192296    1.8752447762    3.2172255513    0.0000000000    0.0000000000    0.0011758778
 W   -1.6291578919    4.6910843002    3.2165465073   -0.0002232769    0.0001289090    0.0010956804
 W    1.6291578913    4.6910843002    3.2165465073    0.0002232769    0.0001289090    0.0010956804
 W    1.2797894029    0.7388867561    9.7338098380    0.0046834648    0.0027039997    0.0100703733
 W    5.2162490560    0.7388867561    9.7338098380   -0.0046834648    0.0027039997    0.0100703733
 W    0.0000000006    3.7504895523    9.6860473542    0.0000000000    0.0000000000    0.0035025553
 W    3.2480192294    4.1479608166    9.7338098380    0.0000000000   -0.0054079994    0.0100703733
Se   -0.0000000003    1.9431159669    7.8664253666    0.0000000000   -0.0015177776    0.0063666845
Se   -1.5652314399    4.6541763459    7.8664253666   -0.0013144340    0.0007588888    0.0063666845
Se    1.5652314392    4.6541763459    7.8664253666    0.0013144340    0.0007588888    0.0063666845
Se    1.6287320180    0.9403488689    1.5151578076    0.0001651930    0.0000953742    0.0008322889
Se    4.8673064409    0.9403488689    1.5151578076   -0.0001651930    0.0000953742    0.0008322889
Se    0.0000000006    3.7504895523    1.5335278371    0.0000000000    0.0000000000    0.0015562485
Se    3.2480192294    3.7450365911    1.5151578076    0.0000000000   -0.0001907485    0.0008322889
Se   -0.0000000000    1.9619315330   11.5397364059    0.0000000000    0.0004604463    0.0043647514
Se    3.2480192296    1.8752447762    9.0627885855    0.0000000000    0.0000000000   -0.0791268244
Se   -1.5489366812    4.6447685626   11.5397364059    0.0003987582   -0.0002302231    0.0043647514
Se    1.5489366812    4.6447685626   11.5397364059   -0.0003987582   -0.0002302231    0.0043647514
Se    1.6282375465    0.9400633854    4.9171555359    0.0000881252    0.0000508791    0.0013096119
Se    4.8678009127    0.9400633854    4.9171555359   -0.0000881252    0.0000508791    0.0013096119
Se    0.0000000006    3.7504895523    4.9016258181    0.0000000000    0.0000000000    0.0007739715
Se    3.2480192296    3.7456075577    4.9171555359    0.0000000000   -0.0001017582    0.0013096119
 PRIMCOORD   6
   23  1
 W   -0.0000000003    1.8690826574    3.2169312691   -0.0000000000   -0.0002392872    0.0010992091
 W    3.2480192296    1.8752447762    3.2173510889    0.0000000000    0.0000000000    0.0012339882
 W   -1.6293461667    4.6911930007    3.2169312691   -0.0002072288    0.0001196436    0.0010992091
 W    1.6293461661    4.6911930007    3.2169312691    0.0002072288    0.0001196436    0.0010992091
 W    1.4609741513    0.8434938194    9.7877086827    0.0349322494    0.0201681436    0.0114446471
 W    5.0350643075    0.8434938194    9.7877086827   -0.0349322494    0.0201681436    0.0114446471
 W    0.0000000006    3.7504895523    9.7332651882    0.0000000000    0.0000000000    0.0109051380
 W    3.2480192294    3.9387466901    9.7877086827   -0.0000000000   -0.0403362872    0.0114446471
Se   -0.0000000003    1.8947153347    7.9641192057    0.0000000000   -0.0092157834    0.0190757040
Se   -1.6071476170    4.6783766620    7.9641192057   -0.0079811025    0.0046078917    0.0190757040
Se    1.6071476163    4.6783766620    7.9641192057    0.0079811025    0.0046078917    0.0190757040
Se    1.6287506947    0.9403596518    1.5160290703    0.0000997869    0.0000576120    0.0010241078
Se    4.8672877643    0.9403596518    1.5160290703   -0.0000997869    0.0000576120    0.0010241078
Se    0.0000000006    3.7504895523    1.5335773834    0.0000000000    0.0000000000    0.0009626511
Se    3.2480192295    3.7450150252    1.5160290703   -0.0000000000   -0.0001152240    0.0010241078
Se   -0.0000000000    1.9276748366   11.5156647314    0.0000000000   -0.0070866052   -0.0042129310
Se    3.2480192296    1.8752447762    8.4937767501    0.0000000000    0.0000000000   -0.1047932770
Se   -1.5786038506    4.6618969108   11.5156647314   -0.0061371801    0.0035433026   -0.0042129310
Se    1.5786038506    4.6618969108   11.5156647314    0.0061371801    0.0035433026   -0.0042129310
Se    1.6280757329    0.9399699623    4.9187778110   -0.0000900753   -0.0000520050    0.0016211500
Se    4.8679627263    0.9399699623    4.9187778110    0.0000900753   -0.0000520050    0.0016211500
Se    0.0000000006    3.7504895523    4.9057914545    0.0000000000    0.0000000000    0.0015358388
Se    3.2480192296    3.7457944040    4.9187778110    0.0000000000    0.0001040100    0.0016211500
 PRIMCOORD   7
   23  1
 W   -0.0000000003    1.8748899780    3.1962716262   -0.0000000000   -0.0001154800   -0.0000276072
 W    3.2480192296    1.8752447762    3.2053056301    0.0000000000    0.0000000000    0.0000189182
 W   -1.6243168795    4.6882893404    3.1962716262   -0.0001000086    0.0000577400   -0.0000276072
 W    1.6243168789    4.6882893404    3.1962716262    0.0001000086    0.0000577400   -0.0000276072
 W    1.7111298755    0.9879212942    9.6700988413   -0.0001840023   -0.0001062338    0.0002405823
 W    4.7849085831    0.9879212942    9.6700988413    0.0001840023   -0.0001062338    0.0002405823
 W    0.0000000006    3.7504895523    9.6849392288    0.0000000000    0.0000000000   -0.0006359619
 W    3.2480192293    3.6498917406    9.6700988413    0.0000000000    0.0002124675    0.0002405823
Se   -0.0000000003    1.8404973550    8.0150074648    0.0000000000   -0.0003071545   -0.0000271129
Se   -1.6541017648    4.7054856519    8.0150074648   -0.0002660036    0.0001535773   -0.0000271129
Se    1.6541017641    4.7054856519    8.0150074648    0.0002660036    0.0001535773   -0.0000271129
Se    1.6299865729    0.9410731862    1.4998234398    0.0001651247    0.0000953348   -0.0000096847
Se    4.8660518864    0.9410731862    1.4998234398   -0.0001651247    0.0000953348   -0.0000096847
Se    0.0000000006    3.7504895523    1.4989700615    0.0000000000    0.0000000000    0.0007747111
Se    3.2480192296    3.7435879560    1.4998234398    0.0000000000   -0.0001906696   -0.0000096847
Se    0.0000000000    1.8740317548   11.3600428331    0.0000000000    0.0006491017   -0.0002146482
Se    3.2480192296    1.8752447762    7.8964705939    0.0000000000    0.0000000000    0.0008628740
Se   -1.6250601221    4.6887184517   11.3600428331    0.0005621386   -0.0003245509   -0.0002146482
Se    1.6250601221    4.6887184517   11.3600428331   -0.0005621386   -0.0003245509   -0.0002146482
Se    1.6209431655    0.9358519726    4.8970370785   -0.0001000365   -0.0000577561   -0.0002972918
Se    4.8750952937    0.9358519726    4.8970370785    0.0001000365   -0.0000577561   -0.0002972918
Se    0.0000000006    3.7504895523    4.8955638749    0.0000000000    0.0000000000   -0.0000132540
Se    3.2480192296    3.7540303833    4.8970370785   -0.0000000000    0.0001155123   -0.0002972918
