 ANIMSTEPS   7
 CRYSTAL 
 PRIMVEC 
  6.4960384586  0.0000000000  0.0000000000
 -3.2480192293  5.6257343291  0.0000000000
  0.0000000000  0.0000000000 12.8755267490
 PRIMCOORD   1
   23  1
 W   -0.0000000003    1.8741287891    3.2235173559   -0.0000000000    0.0001367206    0.0003972953
 W    3.2480192296    1.8752447762    3.2166226709    0.0000000000    0.0000000000    0.0001174006
 W   -1.6249760884    4.6886699348    3.2235173559    0.0001184035   -0.0000683603    0.0003972953
 W    1.6249760878    4.6886699348    3.2235173559   -0.0001184035   -0.0000683603    0.0003972953
 W    1.7096461065    0.9870646395    9.6554085129    0.0017876086    0.0010320763   -0.0064500604
 W    4.7863923527    0.9870646395    9.6554085129   -0.0017876086    0.0010320763   -0.0064500604
 W    0.0000000006    3.7504895523    9.6457778751    0.0000000000   -0.0000000000    0.0000713647
 W    3.2480192296    3.6516050496    9.6554085129    0.0000000000   -0.0020641526   -0.0064500604
Se   -0.0000000003    1.8777394192    7.9854870339    0.0000000000   -0.0010653638   -0.0127633528
Se   -1.6218491911    4.6868646198    7.9854870339   -0.0009226321    0.0005326819   -0.0127633528
Se    1.6218491904    4.6868646198    7.9854870339    0.0009226321    0.0005326819   -0.0127633528
Se    1.6215873679    0.9362239034    1.5433714378   -0.0001055090   -0.0000609157   -0.0129410309
Se    4.8744510906    0.9362239034    1.5433714378    0.0001055090   -0.0000609157   -0.0129410309
Se    0.0000000006    3.7504895523    1.5445645703    0.0000000000    0.0000000000   -0.0130844947
Se    3.2480192293    3.7532865223    1.5433714378   -0.0000000000    0.0001218314   -0.0129410309
Se    0.0000000000    1.8377457942   11.2923601791    0.0000000000   -0.0000307886    0.0135269537
Se    3.2480192296    1.8752447762   11.4065096126    0.0000000000    0.0000000000    0.0127120720
Se   -1.6564846858    4.7068614320   11.2923601791   -0.0000266637    0.0000153943    0.0135269537
Se    1.6564846858    4.7068614320   11.2923601791    0.0000266637    0.0000153943    0.0135269537
Se    1.6289564233    0.9404784291    4.9013628718    0.0001602822    0.0000925390    0.0136650438
Se    4.8670820359    0.9404784291    4.9013628718   -0.0001602822    0.0000925390    0.0136650438
Se    0.0000000006    3.7504895523    4.8991189199    0.0000000000    0.0000000000    0.0138791117
Se    3.2480192296    3.7447774703    4.9013628718    0.0000000000   -0.0001850780    0.0136650438
 PRIMCOORD   2
   23  1
 W   -0.0000000005    1.6971292898    3.3665410755    0.0000000000    0.0002931787   -0.0000704312
 W    3.2480192296    1.7012816072    3.3743197727    0.0000000000   -0.0035800285   -0.0016183516
 W   -1.6529036933    4.4873842138    3.3898688579    0.0018934080    0.0011889338    0.0006017728
 W    1.6529036927    4.4873842138    3.3898688579   -0.0018934080    0.0011889338    0.0006017728
 W    1.7108262985    1.1130797774    9.6162461691    0.0001749152   -0.0014271132    0.0021017233
 W    4.7852121610    1.1130797774    9.6162461691   -0.0001749152   -0.0014271132    0.0021017233
 W    0.0000000005    3.8704989987    9.6076787787    0.0000000000   -0.0015017225    0.0026644741
 W    3.2480192296    3.7748764023    9.6162108375    0.0000000000   -0.0009920996    0.0027248437
Se   -0.0000000002    1.9969549120    7.9317024289    0.0000000000   -0.0011711767    0.0022357161
Se   -1.6199497213    4.8132150786    7.9357757173   -0.0003646188   -0.0024878530    0.0021719434
Se    1.6199497206    4.8132150786    7.9357757173    0.0003646188   -0.0024878530    0.0021719434
Se    1.6255137255    0.7468004010    1.6822350589   -0.0011438169   -0.0008380543   -0.0005605294
Se    4.8705247331    0.7468004010    1.6822350589    0.0011438169   -0.0008380543   -0.0005605294
Se    0.0000000006    3.5844295338    1.6853863709    0.0000000000   -0.0003443647    0.0006219598
Se    3.2480192293    3.5653691107    1.6654930645    0.0000000000   -0.0007450921    0.0021746347
Se    0.0000000000    1.9622855311   11.2757055961    0.0000000000   -0.0014054877    0.0021058879
Se    3.2480192294    1.9991948080   11.3876058937    0.0000000000   -0.0008315294    0.0023917516
Se   -1.6556842140    4.8308164482   11.2717378275   -0.0000344326   -0.0009242650    0.0025936997
Se    1.6556842140    4.8308164482   11.2717378275    0.0000344326   -0.0009242650    0.0025936997
Se    1.6193421138    0.7524427938    5.0558042648    0.0000243346    0.0012561327    0.0011138005
Se    4.8766963454    0.7524427938    5.0558042648   -0.0000243346    0.0012561327    0.0011138005
Se    0.0000000008    3.5733857459    5.0578540136    0.0000000000    0.0000580858    0.0012631578
Se    3.2480192296    3.4952966140    5.1718717091    0.0000000000    0.0166846749   -0.0305384634
 PRIMCOORD   3
   23  1
 W   -0.0000000005    1.6903994686    3.3448621926    0.0000000000   -0.0019694077    0.0031289858
 W    3.2480192296    1.7593219262    3.4178123240    0.0000000000   -0.0121797550    0.0089871895
 W   -1.7126056174    4.4414127508    3.3752075464    0.0000172606   -0.0036384510    0.0113060395
 W    1.7126056168    4.4414127508    3.3752075464   -0.0000172606   -0.0036384510    0.0113060395
 W    1.7122366622    1.1603364560    9.5778675364   -0.0004657845   -0.0010214579    0.0027950463
 W    4.7838017974    1.1603364560    9.5778675364    0.0004657845   -0.0010214579    0.0027950463
 W    0.0000000005    3.9155526722    9.5675170613    0.0000000000   -0.0012107371    0.0032342397
 W    3.2480192296    3.8105685029    9.5550796271    0.0000000000    0.0029699546    0.0085171225
Se   -0.0000000002    2.0394764490    7.8932112519    0.0000000000    0.0002161990    0.0016347349
Se   -1.6026846129    4.8813305323    7.8961085843   -0.0014370509   -0.0036935461    0.0027147571
Se    1.6026846122    4.8813305323    7.8961085843    0.0014370509   -0.0036935461    0.0027147571
Se    1.6590799013    0.7428950412    1.6950227248   -0.0016896639   -0.0040705221    0.0037985539
Se    4.8369585572    0.7428950412    1.6950227248    0.0016896639   -0.0040705221    0.0037985539
Se    0.0000000006    3.6100503635    1.6769280798    0.0000000000   -0.0024038056    0.0051995470
Se    3.2480192293    3.5526986958    1.6053348185    0.0000000000   -0.0049366886    0.0104993623
Se    0.0000000000    2.0004532302   11.2392251332    0.0000000000    0.0002380594    0.0021712364
Se    3.2480192294    2.0430438862   11.3460562735    0.0000000000   -0.0000159211    0.0023268098
Se   -1.6647723461    4.8648017007   11.2212181847    0.0009280109    0.0009383504    0.0038180113
Se    1.6647723461    4.8648017007   11.2212181847   -0.0009280109    0.0009383504    0.0038180113
Se    1.5897194415    0.7058730065    5.0171820770   -0.0011192414   -0.0031580553    0.0036715320
Se    4.9063190177    0.7058730065    5.0171820770    0.0011192414   -0.0031580553    0.0036715320
Se    0.0000000008    3.5740784683    5.0145794115    0.0000000000   -0.0023769617    0.0044598224
Se    3.2480192296    3.1040568791    5.8429287029    0.0000000000    0.0509564279   -0.1063669305
 PRIMCOORD   4
   23  1
 W   -0.0000000005    1.6978948155    3.3253822101    0.0000000000   -0.0009536949   -0.0003041849
 W    3.2480192296    1.8263964191    3.3690610957    0.0000000000   -0.0012855341    0.0000333161
 W   -1.7160868639    4.4530083410    3.3129095046   -0.0001038215   -0.0009859922   -0.0001347264
 W    1.7160868633    4.4530083410    3.3129095046    0.0001038215   -0.0009859922   -0.0001347264
 W    1.7161601298    1.1723331696    9.5630436999    0.0000972072    0.0009738195    0.0001179098
 W    4.7798783298    1.1723331696    9.5630436999   -0.0000972072    0.0009738195    0.0001179098
 W    0.0000000005    3.9272270935    9.5505370101    0.0000000000    0.0009767789    0.0002992984
 W    3.2480192296    3.7986923167    9.5066528396    0.0000000000    0.0013034567   -0.0000258535
Se   -0.0000000002    2.0424033715    7.8850898770    0.0000000000    0.0008570648    0.0002103030
Se   -1.5935394450    4.9081092681    7.8815118385    0.0001811325    0.0009690386    0.0001775671
Se    1.5935394444    4.9081092681    7.8815118385   -0.0001811325    0.0009690386    0.0001775671
Se    1.6712046216    0.7600366890    1.6762888602    0.0001544848   -0.0010166877   -0.0002224767
Se    4.8248338370    0.7600366890    1.6762888602   -0.0001544848   -0.0010166877   -0.0002224767
Se    0.0000000006    3.6205423919    1.6481055112    0.0000000000   -0.0010475555   -0.0001371897
Se    3.2480192293    3.5755330032    1.5406975909    0.0000000000   -0.0012691416   -0.0000553247
Se    0.0000000000    2.0046185157   11.2278896389    0.0000000000    0.0010563843    0.0001178667
Se    3.2480192294    2.0497994679   11.3353727718    0.0000000000    0.0012624752    0.0000254291
Se   -1.6712470228    4.8651449316   11.1994906650   -0.0001493369    0.0010200461    0.0002344643
Se    1.6712470228    4.8651449316   11.1994906650    0.0001493369    0.0010200461    0.0002344643
Se    1.5936701826    0.7172526730    4.9944472847   -0.0002023116   -0.0009775698   -0.0001882379
Se    4.9023682766    0.7172526730    4.9944472847    0.0002023116   -0.0009775698   -0.0001882379
Se    0.0000000008    3.5827238625    4.9908227406    0.0000000000   -0.0008342200   -0.0002097705
Se    3.2480192296    2.8126107924    6.4383513725    0.0000000000   -0.0000313230    0.0000771096
 PRIMCOORD   5
   23  1
 W   -0.0000000005    1.7094692712    3.3085011856    0.0000000000    0.0012448215   -0.0032408496
 W    3.2480192296    1.8145522213    3.3208595153    0.0000000000   -0.0029579133   -0.0085130406
 W   -1.7121967751    4.4649166476    3.2981602893    0.0004603121    0.0009986897   -0.0027949134
 W    1.7121967745    4.4649166476    3.2981602893   -0.0004603121    0.0009986897   -0.0027949134
 W    1.7127532503    1.1841408217    9.5008206620   -0.0000349080    0.0035706873   -0.0113100144
 W    4.7832852092    1.1841408217    9.5008206620    0.0000349080    0.0035706873   -0.0113100144
 W    0.0000000005    3.9345399553    9.5310626550    0.0000000000    0.0020417117   -0.0031342893
 W    3.2480192296    3.8654790981    9.4577814495    0.0000000000    0.0122639469   -0.0089200299
Se   -0.0000000002    2.0510152412    7.8612364256    0.0000000000    0.0024024728   -0.0044227402
Se   -1.5894356212    4.9196713920    7.8588734311    0.0010461655    0.0031093452   -0.0036842588
Se    1.5894356205    4.9196713920    7.8588734311   -0.0010461655    0.0031093452   -0.0036842588
Se    1.6647688099    0.7603434277    1.6546826780   -0.0009269039   -0.0009388945   -0.0037969933
Se    4.8312696487    0.7603434277    1.6546826780    0.0009269039   -0.0009388945   -0.0037969933
Se    0.0000000006    3.6246591164    1.6368523970    0.0000000000   -0.0002371800   -0.0021877722
Se    3.2480192293    3.5821940355    1.5300502835    0.0000000000    0.0000145491   -0.0023446225
Se    0.0000000000    2.0150615739   11.1992510855    0.0000000000    0.0024193924   -0.0052484749
Se    3.2480192294    2.0723762724   11.2711534684    0.0000000000    0.0049993867   -0.0106059766
Se   -1.6593912013    4.8821222693   11.1804240263    0.0017863686    0.0041170926   -0.0036758673
Se    1.6593912013    4.8821222693   11.1804240263   -0.0017863686    0.0041170926   -0.0036758673
Se    1.6028256655    0.7438998104    4.9799530132    0.0014035922    0.0036871590   -0.0027349867
Se    4.8932127937    0.7438998104    4.9799530132   -0.0014035922    0.0036871590   -0.0027349867
Se    0.0000000008    3.5855962419    4.9827084100    0.0000000000   -0.0001965756   -0.0016077067
Se    3.2480192296    2.5220642285    7.0330370454    0.0000000000   -0.0510827707    0.1062195703
 PRIMCOORD   6
   23  1
 W   -0.0000000005    1.7531057334    3.2683908092    0.0000000000    0.0015478658   -0.0026658364
 W    3.2480192296    1.8490118812    3.2601435346    0.0000000000    0.0009820128   -0.0027734856
 W   -1.7107526504    4.5106301916    3.2600046083   -0.0001882639    0.0014523496   -0.0021308008
 W    1.7107526497    4.5106301916    3.2600046083    0.0001882639    0.0014523496   -0.0021308008
 W    1.6529392114    1.1396551224    9.4847436625   -0.0018726381   -0.0011610707   -0.0005637480
 W    4.8430992481    1.1396551224    9.4847436625    0.0018726381   -0.0011610707   -0.0005637480
 W    0.0000000005    3.9298786807    9.5085554397    0.0000000000   -0.0002888617    0.0000086216
 W    3.2480192296    3.9266168668    9.5000537641    0.0000000000    0.0034046439    0.0017148161
Se   -0.0000000002    2.0536707134    7.8171308429    0.0000000000   -0.0001067573   -0.0013049802
Se   -1.6187023826    4.8745405729    7.8187933295   -0.0001589994   -0.0012118002   -0.0010428902
Se    1.6187023819    4.8745405729    7.8187933295    0.0001589994   -0.0012118002   -0.0010428902
Se    1.6558476189    0.7929258665    1.6045526808    0.0000263108    0.0009288763   -0.0026336454
Se    4.8401908396    0.7929258665    1.6045526808   -0.0000263108    0.0009288763   -0.0026336454
Se    0.0000000006    3.6613680197    1.6004418424    0.0000000000    0.0014225804   -0.0021132485
Se    3.2480192293    3.6246998449    1.4886946092    0.0000000000    0.0008068841   -0.0024205637
Se    0.0000000000    2.0423120302   11.1893059542    0.0000000000    0.0004209632   -0.0005581930
Se    3.2480192294    2.0625059588   11.2086089099    0.0000000000    0.0006314094   -0.0020463760
Se   -1.6255991993    4.8806230287   11.1925179890    0.0011975131    0.0007732286    0.0006028425
Se    1.6255991993    4.8806230287   11.1925179890   -0.0011975131    0.0007732286    0.0006028425
Se    1.6198957539    0.8105214370    4.9403904834    0.0003845112    0.0025172499   -0.0022136883
Se    4.8761427053    0.8105214370    4.9403904834   -0.0003845112    0.0025172499   -0.0022136883
Se    0.0000000008    3.6265274844    4.9443246844    0.0000000000    0.0012624148   -0.0022328984
Se    3.2480192296    2.1321203941    7.7031805824    0.0000000000   -0.0166808226    0.0303560048
 PRIMCOORD   7
   23  1
 W   -0.0000000006    1.8758785067    3.2339577317    0.0000000000   -0.0001005634    0.0004988205
 W    3.2480192296    1.9739860685    3.2247887871    0.0000000000    0.0001963870    0.0003358153
 W   -1.7092740839    4.6389450249    3.2251073225   -0.0001850568   -0.0000304043    0.0002738122
 W    1.7092740833    4.6389450249    3.2251073225    0.0001850568   -0.0000304043    0.0002738122
 W    1.6240893772    0.9366950704    9.6478174448    0.0003490296    0.0002905770   -0.0002481723
 W    4.8719490826    0.9366950704    9.6478174448   -0.0003490296    0.0002905770   -0.0002481723
 W    0.0000000003    3.7517645074    9.6481703386    0.0000000000   -0.0000715409   -0.0004634384
 W    3.2480192296    3.7519239948    9.6559194396    0.0000000000   -0.0005235552   -0.0001921782
Se    0.0000000000    1.8755234756    7.9532891668    0.0000000000    0.0000255488   -0.0008196651
Se   -1.6296522205    4.6848923954    7.9508825442   -0.0000232559   -0.0000263857   -0.0005669808
Se    1.6296522198    4.6848923954    7.9508825442    0.0000232559   -0.0000263857   -0.0005669808
Se    1.6558401855    0.9194283039    1.5674979011   -0.0001575625    0.0000755150    0.0002429467
Se    4.8401982730    0.9194283039    1.5674979011    0.0001575625    0.0000755150    0.0002429467
Se    0.0000000006    3.7878188852    1.5675600113    0.0000000000   -0.0001931182    0.0002068818
Se    3.2480192293    3.7507921043    1.4561338483    0.0000000000   -0.0000097289   -0.0003154547
Se    0.0000000000    1.8752681247   11.3464576678    0.0000000000    0.0000667507    0.0001279270
Se    3.2480192293    1.8722294068   11.3462357195    0.0000000000   -0.0000206898    0.0001845093
Se   -1.6211993323    4.6899436061   11.3477594544    0.0000691640    0.0000080468    0.0000322919
Se    1.6211993323    4.6899436061   11.3477594544   -0.0000691640    0.0000080468    0.0000322919
Se    1.6221413965    0.9390072236    4.9124098806    0.0002825759   -0.0001430456    0.0007030865
Se    4.8738970627    0.9390072236    4.9124098806   -0.0002825759   -0.0001430456    0.0007030865
Se    0.0000000010    3.7486315202    4.9133807881    0.0000000000    0.0003038959    0.0003806052
Se    3.2480192296    1.8823946333    7.9523973924    0.0000000000   -0.0000219922   -0.0008177912
